Title = "SolarSim4.1"
Variables = "DayAndTime(s)", "DDHHMMSS", "DrivingTime(s)", "DrivingTime(h)", "Distance(km)", "Distance(miles)", "Lap", "DistanceWithinLap(km)", "Driving", "ArrayOn", "ArrayOnStand", "CarVel(m/s)", "CarVel(km/h)", "CarVel(mph)", "DynamicPressure(Pa)", "YawAngle(deg)", "CdA(m2)", "HeadWind(m/s)", "ArrayTemperature(C)", "DirectSun(W/m2)", "HorizontalIrradiance(W/m2)", "NCellsShaded", "CellByCellMaximumPower(W)", "ArrayToMPPTPower(W)", "Solar/InputPower(W)", "InclinePower(W)", "RollingPower(W)", "AeroPower(W)", "ControllerPowerIn(W)", "BatteryPowerOut(W)", "DriveThrust (N)", "TotalDriveThrust (N)", "BatteryCharge(%)", "BatteryVoltage(V)", "AverageCarVel(km/h)"
Zone T = " ", I=4388, J=1, K=1, F=POINT
 30601.000000 1083001.000000    1.000000    0.000278    0.001638    0.001018    1.000000    0.001638    1.000000    1.000000    0.000000    3.275422   11.791518    7.326909    0.569631  -17.300000    0.030297   -0.942031   39.080000  615.200000  457.171073    0.000000  390.395885  388.340498  382.440333    0.000000    0.000000    0.000000 3000.000000 2617.559667  888.249500  888.249500   97.987910  143.016638    5.895759
 30661.000000 1083101.000000   61.000000    0.016944    0.802607    0.498717    1.000000    0.802607    1.000000    1.000000    0.000000   13.477480   48.518929   30.148265  102.775217   -1.252507    0.089827   -0.923724   39.135721  606.142353  459.473542    0.000000  392.027754  389.525592  383.655066 -308.514421  288.320592  130.862790 -2730.853217 -3114.508283 -172.831318 2682.350359   98.060268  147.220824   47.366959
 30721.000000 1083201.000000  121.000000    0.033611    1.892725    1.176085    1.000000    1.892725    1.000000    1.000000    0.000000   20.160427   72.577536   45.097590  239.030405   -2.680272    0.090242    0.064877   39.197321  596.054507  461.557575    1.000000  383.605315  363.892580  358.371602 1137.111771  409.421164  434.187336 2404.378859 2046.007257  106.623269 6717.171685   97.796874  143.190658   56.312467
 30781.000000 1083301.000000  181.000000    0.050278    3.135080    1.948048    1.000000    3.135080    1.000000    1.000000    0.000000   19.379044   69.764557   43.349686  215.001335   -2.414376    0.090594   -0.452693   39.262094  584.969619  463.400253    0.000000  391.351357  391.351357  385.303791 3075.391704  398.881760  381.971329 3000.000000 2614.696209  136.686368 10226.871035   97.524997  142.641503   62.355180
 30841.000000 1083401.000000  241.000000    0.066944    4.348059    2.701759    1.000000    4.348059    1.000000    1.000000    0.000000   19.832924   71.398527   44.364988  241.994109   -2.062167    0.090362    0.531312   39.326263  573.217135  465.027583    5.000000  381.665276  344.908051  339.367145  -12.214750  402.751344  432.983100 1106.438982  767.071837   49.917114 11338.878282   97.520461  144.002629   64.950257
 30901.000000 1083501.000000  301.000000    0.083611    5.531073    3.436849    1.000000    5.531073    1.000000    1.000000    0.000000   19.734793   71.045254   44.145474  244.924991   -1.388106    0.089917    0.723008   39.379842  550.029973  464.734252    9.000000  379.595722  343.557757  338.026654  -94.325358  401.536280  434.753078  794.714198  456.687544   35.967588 15439.676630   97.197501  144.094946   66.152364
 30961.000000 1083601.000000  361.000000    0.100278    6.712886    4.171194    1.000000    6.712886    1.000000    1.000000    0.000000   19.698732   70.915436   44.064809  243.969474   -1.378296    0.089910    0.692129   39.433397  523.783889  463.670096    9.000000  379.518446  343.426630  337.886036 -653.602404  401.393019  432.871299    0.488848 -337.397188    0.022116 17703.041491   97.060082  144.616133   66.942911
 31021.000000 1083701.000000  421.000000    0.116944    7.895480    4.906024    1.000000    7.895480    1.000000    1.000000    0.000000   19.808749   71.311495   44.310909  245.026673   -1.391702    0.089919    0.653217   39.486964  494.471535  461.800315    9.000000  378.810558  342.397368  337.072359  741.802207  403.121126  436.661762 1711.849495 1374.777136   77.158453 21690.323906   96.747214  143.228139   67.514795
 31081.000000 1083801.000000  481.000000    0.133611    9.067216    5.634107    1.000000    9.067216    1.000000    1.000000    0.000000   18.930533   68.149918   42.346396  222.309112    0.054583    0.088942    0.793004   39.540337  462.170374  459.105772   20.000000  374.664796  304.758216  299.893864  879.125770  380.659405  370.037538 3000.000000 2700.106136  143.001424 24618.449048   96.558459  142.167070   67.862740
 31141.000000 1083901.000000  541.000000    0.150278   10.260455    6.375551    1.000000   10.260455    1.000000    1.000000    0.000000   19.761975   71.143109   44.206279  253.786961   -1.023561    0.089676    0.664660   39.611604  434.302236  456.980297    8.000000  376.468054  341.713363  336.327199 -1374.001506  410.419575  459.217042 -3000.000000 -3336.327199 -132.687876 25515.339039   96.555830  146.538796   68.276598
 31201.000000 1084001.000000  601.000000    0.166944   11.438468    7.107534    1.000000   11.438468    1.000000    1.000000    0.000000   19.584117   70.502820   43.808422  240.392147    0.383355    0.088592    0.702252   39.766882  445.411554  462.186034   26.000000  373.519154  279.783971  275.400062 -1695.357850  398.493193  417.237439 -1026.042205 -1301.442267  -46.792039 27843.483087   96.412087  145.038314   68.516613
 31261.000000 1084101.000000  661.000000    0.183611   12.624464    7.844478    1.000000   12.624464    1.000000    1.000000    0.000000   19.924952   71.729828   44.570848  242.602191   -1.323915    0.089874    0.476419   40.925299  463.469532  468.772597    8.000000  383.564620  352.108325  346.545682 1498.445760  405.002072  434.142172 2695.367659 2348.821976  120.902038 31875.248087   96.075567  142.221950   68.756536
 31321.000000 1084201.000000  721.000000    0.200278   13.822867    8.589131    1.000000   13.822867    1.000000    1.000000    0.000000   19.737886   71.056388   44.152393  239.518228   -0.920295    0.089608    0.534891   41.087488  488.745909  476.870414   10.000000  388.439125  360.962090  355.298318 -468.410431  401.351080  423.499881  433.004264   77.705946   19.606157 32767.542757   96.080813  143.904748   69.018474
 31381.000000 1084301.000000  781.000000    0.216944   15.012791    9.328516    1.000000   15.012791    1.000000    1.000000    0.000000   19.870720   71.534593   44.449535  242.186507   -0.801963    0.089530    0.509613   41.251116  520.490499  486.405808   10.000000  395.353223  365.516995  359.828005 -312.884471  404.295146  430.982773  550.585074  190.757069   24.739913 35839.665278   95.864235  143.730196   69.201083
 31441.000000 1084401.000000  841.000000    0.233611   16.203491   10.068383    1.000000   16.203491    1.000000    1.000000    0.000000   19.906581   71.663691   44.529753  241.844617   -0.704925    0.089465    0.482246   41.417225  559.039563  497.519461    9.000000  404.932438  358.938786  353.329052  849.646443  404.697079  430.493917 1944.925917 1591.596865   87.308465 39897.273630   95.546261  142.559204   69.360962
 31501.000000 1084501.000000  901.000000    0.250278   17.408443   10.817105    1.000000   17.408443    1.000000    1.000000    0.000000   20.169340   72.609623   45.117528  240.889764   -1.324045    0.089874    0.195628   42.597277  598.967882  509.870602    8.000000  412.104331  371.679631  365.959707  153.476266  409.767517  436.150426 1257.795111  891.835404   55.726929 42092.938818   95.416616  143.023197   69.556486
 31561.000000 1084601.000000  961.000000    0.266944   18.612743   11.565422    1.000000   18.612743    1.000000    1.000000    0.000000   19.925224   71.730805   44.571456  240.610199   -0.757643    0.089500    0.395305   42.779722  630.397990  520.684771   18.000000  417.730597  347.902223  342.513630  122.466812  405.680030  429.503915  959.339768  616.826138   42.955360 45404.518607   95.172867  143.124005   69.725156
 31621.000000 1084701.000000 1021.000000    0.283611   19.815250   12.312625    1.000000   19.815250    1.000000    1.000000    0.000000   20.087667   72.315603   44.934832  239.140933   -1.106545    0.089731    0.222013   42.964335  653.268501  529.851406    6.000000  430.400158  393.617665  387.367192 -666.812094  408.039206  430.468836  348.966228  -38.400963   15.531604 49062.830252   94.887461  143.488731   69.867677
 31681.000000 1084801.000000 1081.000000    0.300278   21.023246   13.063239    1.000000   21.023246    1.000000    1.000000    0.000000   19.960816   71.858937   44.651073  239.934503   -0.755438    0.089499    0.352269   43.112557  648.255769  532.854414   17.000000  427.501271  340.188302  334.859463 -561.529182  406.225003  428.866137  244.182468  -90.676996   10.916822 50447.104018   94.848863  143.510368   70.012659
 31741.000000 1084901.000000 1141.000000    0.316944   22.213853   13.803048    1.000000   22.213853    1.000000    1.000000    0.000000   19.068016   68.644856   42.653936  217.991979   -0.790006    0.089522    0.350303   43.252830  642.079117  535.367656   18.000000  428.855615  333.780918  328.537273 1716.562930  387.004376  371.303918 3000.000000 2671.462727  140.802540 53059.662794   94.672123  141.385460   70.087529
 31801.000000 1085001.000000 1201.000000    0.333611   23.407820   14.544945    1.000000   23.407820    1.000000    1.000000    0.000000   19.832885   71.398386   44.364900  237.512686   -0.087047    0.089057    0.439045   43.395612  640.637850  538.738036   24.000000  429.821826  328.388184  322.993390   17.656064  402.610865  418.685437 1162.978360  839.984970   52.489958 56750.131408   94.382431  142.625312   70.164989
 31861.000000 1085101.000000 1261.000000    0.350278   24.602488   15.287277    1.000000   24.602488    1.000000    1.000000    0.000000   19.769625   71.170650   44.223391  236.620973   -0.543887    0.089359    0.397427   43.540893  643.939334  543.017991   23.000000  431.378643  312.168872  208.776822 -235.704931  402.772038  418.693869  471.045282  262.268460   21.250035 58749.542581   94.264589  143.004578   70.237079
 31921.000000 1085201.000000 1321.000000    0.366944   25.803196   16.033363    1.000000   25.803196    1.000000    1.000000    0.000000   19.897108   71.629587   44.508562  237.188937   -0.628467    0.089415    0.384620   43.689024  652.064815  548.275133   22.000000  437.043814  314.421583  209.951818   56.251409  403.627160  420.852780 1292.508387 1082.556569   58.181349 58806.060070   94.317612  142.417882   70.319082
 31981.000000 1085301.000000 1381.000000    0.383611   26.993785   16.773161    1.000000   26.993785    1.000000    1.000000    0.000000   20.167733   72.603838   45.113933  237.680772   -1.235932    0.089816    0.100606   44.838739  664.751991  554.505249    7.000000  446.505098  408.370226  402.041029  182.150032  409.868480  430.167671 1244.956135  842.915106   55.143946 64145.364246   93.827384  142.388991   70.367580
 32041.000000 1085401.000000 1441.000000    0.400278   28.201117   17.523362    1.000000   28.201117    1.000000    1.000000    0.000000   20.092131   72.331673   44.944818  239.388738   -1.112682    0.089735    0.224759   44.992200  682.495678  561.862628   19.000000  445.402966  354.822513  349.225764 -160.125338  408.950920  431.897234  684.179859  334.954096   30.377181 67328.328832   93.605558  142.673328   70.453867
 32101.000000 1085501.000000 1501.000000    0.416944   29.407225   18.272803    1.000000   29.407225    1.000000    1.000000    0.000000   19.972110   71.899596   44.676337  237.987745   -1.060080    0.089700    0.282200   45.147978  698.971761  569.287483   18.000000  454.341623  348.558391  343.003679 -609.652147  406.691416  426.832014  121.025699 -221.977981    5.402032 70063.465226   93.416194  143.004376   70.530320
 32161.000000 1085601.000000 1561.000000    0.433611   30.606167   19.017791    1.000000   30.606167    1.000000    1.000000    0.000000   19.974104   71.906775   44.680799  238.683570   -1.021310    0.089674    0.315112   45.266659  702.518806  573.908599   16.000000  460.167075  355.982712  350.212737 -426.865371  406.716785  427.984508  331.281363  -18.931374   14.795030 72677.691732   93.239490  142.782555   70.584371
 32221.000000 1085701.000000 1621.000000    0.450278   31.805191   19.762830    1.000000   31.805191    1.000000    1.000000    0.000000   19.984650   71.944740   44.704389  238.579215   -1.018692    0.089673    0.326239   45.342765  700.677599  577.038818   16.000000  462.686236  358.991998  353.198617 -565.298962  406.458244  427.517207  310.312013  -42.886604   13.867609 74649.308852   93.132029  142.754856   70.634602
 32281.000000 1085801.000000 1681.000000    0.466944   33.002758   20.506963    1.000000   33.002758    1.000000    1.000000    0.000000   20.006957   72.025045   44.754288  238.402043   -1.060076    0.089700    0.319717   45.421244  701.648418  580.678808   16.000000  465.192222  360.381869  354.592175  181.498278  406.491898  427.365286 1266.199496  911.607321   56.578052 76903.801944   92.996137  141.987127   70.678126
 32341.000000 1085901.000000 1741.000000    0.483611   34.197713   21.249474    1.000000   34.197713    1.000000    1.000000    0.000000   19.775859   71.193091   44.237336  236.359696   -0.692279    0.089457    0.436227   45.502076  705.418038  584.855001   21.000000  467.081163  352.967136  347.218999 -656.376162  402.451232  418.356646  125.843100 -221.375899    5.678802 77986.386664   92.982287  142.821901   70.713249
 32401.000000 1090001.000000 1801.000000    0.500278   35.385023   21.987234    1.000000   35.385023    1.000000    1.000000    0.000000   19.703458   70.932447   44.075379  235.638500   -0.456185    0.089301    0.480474   45.585169  711.924249  589.584215   18.000000  475.141858  399.311397  392.531185 -1207.177233  401.003671  414.855755 -503.146758 -895.677943  -22.800055 80226.370511   92.847997  143.256597   70.730752
 32461.000000 1090101.000000 1861.000000    0.516944   36.571110   22.724234    1.000000   36.571110    1.000000    1.000000    0.000000   19.749041   71.096549   44.177347  235.987993   -0.514069    0.089339    0.480227   46.670609  721.211470  594.902545   18.000000  476.517041  400.586315  393.820263  -88.460904  401.375262  416.034039  906.984017  513.163754   41.063777 82663.390856   92.706005  142.161912   70.744759
 32521.000000 1090201.000000 1921.000000    0.533611   37.756237   23.460638    1.000000   37.756237    1.000000    1.000000    0.000000   19.747649   71.091535   44.174232  236.077678   -0.577286    0.089381    0.478425   46.758399  733.279896  600.838001   17.000000  480.708750  403.182488  396.399195   15.621613  401.553357  416.571358  966.294565  569.895370   43.727322 83913.818228   92.686993  142.111582   70.756093
 32581.000000 1090301.000000 1981.000000    0.550278   38.941771   24.197294    1.000000   38.941771    1.000000    1.000000    0.000000   19.825458   71.371649   44.348287  238.178261   -0.620238    0.089410    0.478560   46.848559  748.143165  607.421103   16.000000  485.515588  406.131250  399.334059  322.494711  403.443137  422.389828 1231.874442  832.540383   55.478877 86111.657736   92.571215  141.866808   70.767478
 32641.000000 1090401.000000 2041.000000    0.566944   40.129642   24.935403    1.000000   40.129642    1.000000    1.000000    0.000000   19.820023   71.352081   44.336128  237.719900   -0.603876    0.089399    0.488545   46.940569  765.017062  614.518150   14.000000  492.678029  409.496546  402.674930  340.761791  402.915249  420.974473 1368.005092  965.330162   61.692828 89474.834940   92.335247  141.668102   70.782318
 32701.000000 1090501.000000 2101.000000    0.583611   41.317609   25.673572    1.000000   41.317609    1.000000    1.000000    0.000000   19.876902   71.556849   44.463364  239.483911   -0.837483    0.089553    0.458412   47.013703  766.573713  618.342045   15.000000  495.436046  406.401487  399.602608  169.945103  405.093220  427.126494  896.783517  497.180909   40.216926 93397.287304   92.041449  141.893988   70.796474
 32761.000000 1090601.000000 2161.000000    0.600278   42.507786   26.413113    1.000000   42.507786    1.000000    1.000000    0.000000   19.801573   71.285664   44.294858  236.092178   -0.968575    0.089640    0.443401   47.089243  768.131082  622.191354   15.000000  499.750867  386.529799  380.367760 -129.463070  402.497206  418.783179  850.634743  470.266983   38.404009 95860.650834   91.897595  141.853536   70.813525
 32821.000000 1090701.000000 2221.000000    0.616944   43.697985   27.152669    1.000000   43.697985    1.000000    1.000000    0.000000   19.860651   71.498344   44.427011  237.576175   -1.034255    0.089683    0.440948   47.167164  769.688408  626.065720   15.000000  503.021124  388.319253  382.159483  523.606242  403.890518  423.078896 1534.263178 1152.103695   69.018370 98828.533635   91.696126  141.258559   70.829691
 32881.000000 1090801.000000 2281.000000    0.633611   44.889568   27.893085    1.000000   44.889568    1.000000    1.000000    0.000000   19.841824   71.430565   44.384895  236.599804   -1.063928    0.089702    0.450143   47.247488  771.246180  629.965271   15.000000  506.811151  389.515204  383.345055  380.505271  402.912222  420.411428 1537.901383 1154.556327   69.356080 102766.025925   91.393469  141.128830   70.847193
 32941.000000 1090901.000000 2341.000000    0.650278   46.079722   28.632612    1.000000   46.079722    1.000000    1.000000    0.000000   19.765788   71.156837   44.214809  235.130801   -1.084387    0.089716    0.462410   47.330177  772.803534  633.889514   11.000000  514.072198  434.161372  426.818282  141.599705  401.441990  416.339300 1241.984561  815.166279   56.220878 105330.528872   91.234781  141.316050   70.861598
 33001.000000 1091001.000000 2401.000000    0.666944   47.269645   29.371996    1.000000   47.269645    1.000000    1.000000    0.000000   19.821069   71.355849   44.338469  236.717199   -1.183195    0.089781    0.448244   48.415241  774.360776  637.838471   13.000000  513.999699  417.741018  410.855052 -191.506747  403.164759  421.253154  708.321817  297.466765   31.923370 108189.974340   91.057011  141.629148   70.874936
 33061.000000 1091101.000000 2461.000000    0.683611   48.460926   30.112223    1.000000   48.460926    1.000000    1.000000    0.000000   19.886243   71.590473   44.484258  237.073355   -1.356946    0.089896    0.402236   48.502711  775.918427  641.812334   14.000000  514.470324  398.330839  392.095274  386.103251  404.449615  423.772296 1370.920977  978.825702   61.581160 111458.797007   90.831924  141.023352   70.889611
 33121.000000 1091201.000000 2521.000000    0.700278   49.649784   30.850946    1.000000   49.649784    1.000000    1.000000    0.000000   19.744914   71.081689   44.168114  235.998763   -1.217695    0.089804    0.473730   48.592524  777.475408  645.810378   11.000000  521.637639  440.473084  433.079933 -493.196730  402.149815  419.023681  216.497852 -216.582081    9.780280 113452.300039   90.735120  141.875645   70.900129
 33181.000000 1091301.000000 2581.000000    0.716944   50.836961   31.588623    1.000000   50.836961    1.000000    1.000000    0.000000   19.847789   71.452040   44.398239  237.229824   -1.289324    0.089851    0.460495   48.685442  778.946702  649.810429   11.000000  523.989475  442.510870  435.106341 -503.128030  403.550732  422.899385  406.305263  -28.801078   18.294254 116244.434339   90.567036  141.667469   70.907810
 33241.000000 1091401.000000 2641.000000    0.733611   52.023372   32.325825    1.000000   52.023372    1.000000    1.000000    0.000000   19.806069   71.301849   44.304915  236.372750   -1.324044    0.089874    0.455824   48.779171  780.391713  653.802661   11.000000  526.553092  444.662505  437.242113 -322.300280  402.964248  420.866488  531.765150   94.523037   23.975855 118283.119178   90.477567  141.537796   70.914100
 33301.000000 1091501.000000 2701.000000    0.750278   53.207278   33.061470    1.000000   53.207278    1.000000    1.000000    0.000000   19.653915   70.754094   43.964556  232.617554   -1.363018    0.089900    0.453244   48.865995  781.728525  657.691290   11.000000  528.868721  446.625087  439.191168  247.171824  399.788772  411.034082 1177.200641  738.009473   53.515065 119295.634327   90.495146  141.061991   70.916771
 33361.000000 1091601.000000 2761.000000    0.766944   54.399135   33.802055    1.000000   54.399135    1.000000    1.000000    0.000000   20.013941   72.050187   44.769911  236.550892   -1.728203    0.090141    0.259158   48.955351  783.066824  661.556153   13.000000  528.360323  413.132152  406.616590  -45.430742  407.178089  426.851716  857.197574  450.580985   38.236292 123878.723433   90.139764  141.128198   70.929694
 33421.000000 1091701.000000 2821.000000    0.783611   55.599228   34.547759    1.000000   55.599228    1.000000    1.000000    0.000000   20.020044   72.072160   44.783564  236.191889   -1.762887    0.090164    0.244056   49.047287  784.406842  665.397101   13.000000  531.316530  420.960376  414.231106  340.525749  407.235814  426.372622 1307.982210  893.751104   58.332776 126812.548767   89.945798  140.713219   70.952578
 33481.000000 1091801.000000 2881.000000    0.800278   56.799247   35.293416    1.000000   56.799247    1.000000    1.000000    0.000000   20.011743   72.042276   44.764995  235.552727   -1.782169    0.090177    0.243139   49.141622  785.746848  669.212695   13.000000  534.394620  431.148011  424.333978  -49.897304  406.765329  424.787521  954.424367  530.090388   42.615716 129093.736452   89.822599  140.934844   70.974415
 33541.000000 1091901.000000 2941.000000    0.816944   58.010801   36.046241    1.000000   58.010801    1.000000    1.000000    0.000000   19.999619   71.998627   44.737873  233.607420   -1.872333    0.090236    0.169001   49.238645  787.089161  673.004201   15.000000  535.187299  409.237824  402.584229 -815.966415  406.624483  421.411580   62.415107 -340.169121    2.786146 128888.841697   89.966617  141.643996   71.009481
 33601.000000 1092001.000000 3001.000000    0.833611   59.217134   36.795821    1.000000   59.217134    1.000000    1.000000    0.000000   20.270923   72.975323   45.344763  235.236901   -1.933906    0.090277   -0.057956   50.337948  788.430371  676.769354    5.000000  541.121780  495.965516  488.176529   55.493712  412.731373  430.918226  887.107564  398.931034   39.000163 130904.894994   89.865835  141.051727   71.036882
 33661.000000 1092101.000000 3061.000000    0.850278   60.356438   37.503752    1.000000   60.356438    1.000000    1.000000    0.000000   16.632537   59.877134   37.205926  164.316783   -2.158766    0.090425    0.269134   50.430000  789.808924  680.538651   13.000000  541.712514  440.683608  433.795168  351.565038  338.502901  247.274832 1000.742404  566.947236   53.852486 132959.212554   89.803637  140.899125   70.984376
 33721.000000 1092201.000000 3121.000000    0.866944   61.358774   38.126575    1.000000   61.358774    1.000000    1.000000    0.000000   16.701045   60.123762   37.359174  170.403257   -1.546467    0.090021    0.522765   50.500000  791.292198  684.411001   11.000000  551.156574  464.570096  456.669439 -339.282376  339.826803  256.286092  257.212858 -199.456580   13.787023 134419.791375   89.798173  141.469984   70.775901
 33781.000000 1092301.000000 3181.000000    0.883611   62.414903   38.782823    1.000000   62.414903    1.000000    1.000000    0.000000   19.702113   70.927606   44.072371  234.231280   -1.334470    0.089881    0.526093   50.570000  792.815301  688.330255   11.000000  554.626955  467.488233  459.594006  422.690846  400.281465  414.308705 1514.702685 1055.108679   68.768760 138399.113170   89.555858  140.427160   70.636168
 33841.000000 1092401.000000 3241.000000    0.900278   63.614457   39.528191    1.000000   63.614457    1.000000    1.000000    0.000000   19.986269   71.950568   44.708010  233.997386   -1.969828    0.090301    0.146271   50.640000  794.417791  692.327092   15.000000  547.596977  424.873996  418.088102 -1051.343018  407.729053  423.563654 -590.912791 -1009.000893  -26.317678 142928.450363   89.207139  141.817877   70.660921
 33901.000000 1092501.000000 3301.000000    0.916944   64.816965   40.275395    1.000000   64.816965    1.000000    1.000000    0.000000   20.042274   72.152186   44.833290  235.951775   -1.844634    0.090218    0.265012   50.704745  794.316611  695.961240   13.000000  553.646550  446.827720  439.896931  -67.303015  407.112172  426.064758 1015.151760  575.254828   45.284861 144193.862216   89.191505  140.634985   70.687996
 33961.000000 1092601.000000 3361.000000    0.933611   66.000867   41.011037    1.000000   66.000867    1.000000    1.000000    0.000000   19.766867   71.160722   44.217222  230.041164   -1.834507    0.090211    0.284486   50.771856  794.964926  699.726729   13.000000  557.512282  447.915147  440.963843 -185.239450  401.576906  409.713593  837.108953  396.145110   37.882658 144641.305617   89.268155  140.802264   70.694175
 34021.000000 1092701.000000 3421.000000    0.950278   67.194718   41.752862    1.000000   67.194718    1.000000    1.000000    0.000000   19.916872   71.700740   44.552774  234.249052   -1.799903    0.090188    0.294418   50.841359  796.382973  703.640481   13.000000  560.754789  449.089974  442.147592  567.411826  405.152228  420.815906 1548.875972 1106.728380   69.450899 147748.784215   89.066525  140.181550   70.710607
 34081.000000 1092801.000000 3481.000000    0.966944   68.390928   42.496152    1.000000   68.390928    1.000000    1.000000    0.000000   19.956172   71.842219   44.640686  234.992977   -1.791117    0.090183    0.298621   50.913257  798.568082  707.707436   13.000000  563.562721  450.275472  443.346105 1377.830865  405.783876  422.783284 2507.082661 2063.736556  112.230699 152302.234390   88.711449  139.307613   70.728911
 34141.000000 1092901.000000 3541.000000    0.983611   69.578975   43.234370    1.000000   69.578975    1.000000    1.000000    0.000000   19.546123   70.366044   43.723432  232.297622   -1.089394    0.089719    0.587910   50.987506  801.502246  711.928622   11.000000  571.862640  481.796429  473.765124 -789.021089  397.721443  407.525568  -23.584025 -497.349149   -1.076957 155793.874381   88.470086  141.132506   70.738297
 34201.000000 1093001.000000 3601.000000    1.000278   70.760676   43.968646    1.000000   70.760676    1.000000    1.000000    0.000000   19.648102   70.733169   43.951553  230.756324   -1.562042    0.090031    0.442530   51.066855  803.805660  715.881952   10.000000  573.604313  492.307191  484.194015 -625.531250  399.321664  407.864222  294.052232 -190.141783   13.382463 157257.044287   88.451856  140.898244   70.741026
 34261.000000 1093101.000000 3661.000000    1.016944   71.946478   44.705469    1.000000   71.946478    1.000000    1.000000    0.000000   19.786300   71.230679   44.260692  234.416329   -1.571399    0.090038    0.433811   52.148773  805.263177  719.580782   10.000000  573.473729  492.194989  484.110836  190.747002  402.818419  417.990211 1030.386153  546.275317   46.475162 160104.244625   88.291518  140.277722   70.747697
 34321.000000 1093201.000000 3721.000000    1.033611   73.124480   45.437445    1.000000   73.124480    1.000000    1.000000    0.000000   19.612292   70.604251   43.871448  233.430474   -1.038850    0.089686    0.600772   52.230615  806.718446  723.277228   10.000000  580.372872  497.317629  489.037673  240.175609  398.738233  410.407177 1224.473531  735.435858   55.811049 162249.671476   88.205880  140.098633   70.746608
 34381.000000 1093301.000000 3781.000000    1.050278   74.303656   46.170151    1.000000   74.303656    1.000000    1.000000    0.000000   19.770727   71.174617   44.225857  231.893548   -1.665533    0.090100    0.385769   52.312466  808.173966  726.971946   12.000000  577.406305  473.118621  465.335200 -258.994447  401.745625  412.675275  732.749847  267.414648   33.144999 165712.325890   87.984453  140.359350   70.746671
 34441.000000 1093401.000000 3841.000000    1.066944   75.486611   46.905206    1.000000   75.486611    1.000000    1.000000    0.000000   19.490275   70.164990   43.598503  231.533075   -0.628114    0.089415    0.661227   52.394359  809.630756  730.665157    3.000000  595.583548  568.858778  559.997089 -198.697083  396.067841  403.122349  774.091905  214.094816   35.523013 169136.643152   87.756626  140.303892   70.750274
 34501.000000 1093501.000000 3901.000000    1.083611   76.658991   47.633689    1.000000   76.658991    1.000000    1.000000    0.000000   19.541187   70.348274   43.712391  230.808411   -0.603500    0.089398    0.655893   52.459528  810.950411  734.257639    0.000000  600.290807  598.475862  589.406961  728.495073  395.621781  401.335094 2219.836241 1630.429280  101.979015 171871.182900   87.632892  139.178510   70.744006
 34561.000000 1093601.000000 3961.000000    1.100278   77.834055   48.363839    1.000000   77.834055    1.000000    1.000000    0.000000   19.575265   70.470955   43.788621  233.762780   -0.629584    0.089416    0.644049   52.522362  812.294472  737.864606    0.000000  602.784216  600.342719  591.252770  -88.399474  398.554233  409.563988  696.637098  105.384328   31.767518 175249.250279   87.449483  140.257123   70.740368
 34621.000000 1093701.000000 4021.000000    1.116944   79.007201   49.092799    1.000000   79.007201    1.000000    1.000000    0.000000   19.611827   70.602576   43.870407  233.078935   -0.750149    0.089495    0.619330   52.582821  813.661541  741.485712    5.000000  601.171823  558.068366  549.468727  247.147799  398.527252  408.701754 1286.385563  736.916836   58.663360 178602.576268   87.269273  139.702566   70.735121