Title = "SolarSim4.1"
Variables = "DayAndTime(s)", "DDHHMMSS", "DrivingTime(s)", "DrivingTime(h)", "Distance(km)", "Distance(miles)", "Lap", "DistanceWithinLap(km)", "Driving", "ArrayOn", "ArrayOnStand", "CarVel(m/s)", "CarVel(km/h)", "CarVel(mph)", "DynamicPressure(Pa)", "YawAngle(deg)", "CdA(m2)", "HeadWind(m/s)", "ArrayTemperature(C)", "DirectSun(W/m2)", "HorizontalIrradiance(W/m2)", "NCellsShaded", "CellByCellMaximumPower(W)", "ArrayToMPPTPower(W)", "Solar/InputPower(W)", "InclinePower(W)", "RollingPower(W)", "AeroPower(W)", "ControllerPowerIn(W)", "BatteryPowerOut(W)", "DriveThrust (N)", "TotalDriveThrust (N)", "BatteryCharge(%)", "BatteryVoltage(V)", "AverageCarVel(km/h)"
#Datums= 0.000000 0.000000 0.000000 0.000000 0.000000 0.000000 0.000000 0.000000 0.000000 0.000000 0.000000 0.000000 0.000000 0.000000 0.000000 0.000000 0.000000 0.000000 0.000000 0.000000 0.000000 0.000000 0.000000 0.000000 0.000000 0.000000 0.000000 0.000000 0.000000 0.000000 0.000000 0.000000 0.000000 0.000000 0.000000 
Zone T = " ", I=1, J=1, K=1, F=POINT
 473304.000000 6112824.000000 156099.000000   43.360833 3021.003466 1877.164525    1.000000 3021.003466    0.000000    0.000000    0.000000    0.000000    0.000000    0.000000  102.418701  -18.949807    0.030297   -1.076916   39.440000  976.000000  974.470154    0.000000  828.315124  821.549708  809.627381  471.516589  272.191252   41.523390    0.000000 -809.627381    0.000000 5960567.050945   64.347506  132.884993   69.671250
