Title = "Velocity file generated by S5.HPC"
Variables = "Distance (km)", "TargetVel (km/h)"
Zone T = "tvel", I = 93771, J = 1, K = 1, F = POINT
   0.000000   73.0
   0.019500   73.0
   0.039000   73.0
   0.048500   73.0
   0.058000   73.0
   0.082000   73.0
   0.098000   73.0
   0.103000   73.0
   0.108000   73.0
   0.117000   73.0
   0.142000   73.0
   0.153000   73.0
   0.170000   73.0
   0.187000   73.0
   0.221000   73.0
   0.247500   73.0
   0.274000   73.0
   0.283000   73.0
   0.304000   73.0
   0.318000   73.0
   0.332000   73.0
   0.360000   73.0
   0.382500   73.0
   0.405000   73.0
   0.444000   73.0
   0.461500   73.0
   0.479000   73.0
   0.503000   73.0
   0.527000   73.0
   0.570000   73.0
   0.591500   73.0
   0.613000   73.0
   0.646000   73.0
   0.687000   73.0
   0.728000   73.0
   0.736500   73.0
   0.745000   73.0
   0.774000   73.0
   0.789500   73.0
   0.805000   73.0
   0.821000   73.0
   0.840000   73.0
   0.864000   73.0
   0.882000   73.0
   0.900000   73.0
   0.931000   73.0
   0.945500   73.0
   0.960000   73.0
   0.989000   73.0
   1.002000   73.0
   1.015000   73.0
   1.037000   73.0
   1.052000   73.0
   1.072000   73.0
   1.088000   73.0
   1.098000   73.0
   1.108000   73.0
   1.109000   73.0
   1.122000   73.0
   1.130000   73.0
   1.144000   73.0
   1.165000   73.0
   1.167000   73.0
   1.187000   73.0
   1.207000   73.0
   1.217000   73.0
   1.231000   73.0
   1.266000   73.0
   1.282000   73.0
   1.298000   73.0
   1.308000   73.0
   1.368000   73.0
   1.382000   73.0
   1.396000   73.0
   1.420000   73.0
   1.438000   73.0
   1.465000   73.0
   1.475500   73.0
   1.486000   73.0
   1.498000   73.0
   1.504000   73.0
   1.562000   73.0
   1.569000   73.0
   1.576500   73.0
   1.584000   73.0
   1.632000   73.0
   1.680000   73.0
   1.728000   73.0
   1.776000   73.0
   1.827000   73.0
   1.835000   73.0
   1.863000   73.0
   1.891000   73.0
   1.946000   73.0
   1.971000   73.0
   1.996000   73.0
   2.025000   73.0
   2.054000   73.0
   2.101000   73.0
   2.142000   73.0
   2.146500   73.0
   2.151000   73.0
   2.164000   73.0
   2.192000   73.0
   2.237500   73.0
   2.283000   73.0
   2.328500   73.0
   2.374000   73.0
   2.401000   73.0
   2.422000   73.0
   2.444000   73.0
   2.466000   73.0
   2.480000   73.0
   2.516000   73.0
   2.534000   73.0
   2.560000   73.0
   2.586000   73.0
   2.616000   73.0
   2.633000   73.0
   2.650000   73.0
   2.690000   73.0
   2.693000   73.0
   2.714000   73.0
   2.727500   73.0
   2.741000   73.0
   2.760000   73.0
   2.787000   73.0
   2.814000   73.0
   2.817000   73.0
   2.861000   73.0
   2.905000   73.0
   2.914000   73.0
   2.923500   73.0
   2.933000   73.0
   3.011000   73.0
   3.026000   73.0
   3.041000   73.0
   3.070000   73.0
   3.099000   73.0
   3.113000   73.0
   3.127000   73.0
   3.169000   73.0
   3.215000   73.0
   3.261000   73.0
   3.269000   73.0
   3.294000   73.0
   3.310000   73.0
   3.326000   73.0
   3.353000   73.0
   3.381000   73.0
   3.409000   73.0
   3.471000   73.0
   3.511000   73.0
   3.551000   73.0
   3.591500   73.0
   3.632000   73.0
   3.664000   73.0
   3.696000   73.0
   3.750000   73.0
   3.777000   73.0
   3.804000   73.0
   3.845000   73.0
   3.868000   73.0
   3.890500   73.0
   3.913000   73.0
   3.930000   73.0
   3.954000   73.0
   3.987000   73.0
   4.020000   73.0
   4.041000   73.0
   4.067000   73.0
   4.079000   73.0
   4.090000   73.0
   4.109000   73.0
   4.113000   73.0
   4.171000   73.0
   4.177000   73.0
   4.185000   73.0
   4.196000   73.0
   4.209000   73.0
   4.239000   73.0
   4.267000   73.0
   4.295000   73.0
   4.313000   73.0
   4.338000   73.0
   4.366000   73.0
   4.379500   73.0
   4.393000   73.0
   4.405000   73.0
   4.456000   73.0
   4.491500   73.0
   4.527000   73.0
   4.563000   73.0
   4.599000   73.0
   4.642500   73.0
   4.686000   73.0
   4.729500   73.0
   4.773000   73.0
   4.816000   73.0
   4.859000   73.0
   4.942000   73.0
   4.985500   73.0
   5.029000   73.0
   5.073000   73.0
   5.117000   73.0
   5.160500   73.0
   5.204000   73.0
   5.247500   73.0
   5.291000   73.0
   5.335000   73.0
   5.379000   73.0
   5.422500   73.0
   5.466000   73.0
   5.477000   73.0
   5.506000   73.0
   5.535000   73.0
   5.593000   73.0
   5.615500   73.0
   5.638000   73.0
   5.650000   73.0
   5.699000   73.0
   5.748000   73.0
   5.797000   73.0
   5.817500   73.0
   5.838000   73.0
   5.897000   73.0
   5.926000   73.0
   5.955000   73.0
   5.993000   73.0
   6.031000   73.0
   6.106000   73.0
   6.144000   73.0
   6.182000   73.0
   6.225000   73.0
   6.268000   73.0
   6.311000   73.0
   6.354000   73.0
   6.397500   73.0
   6.441000   73.0
   6.484000   73.0
   6.527000   73.0
   6.541000   73.0
   6.576500   73.0
   6.612000   73.0
   6.683000   73.0
   6.719000   73.0
   6.755000   73.0
   6.802000   73.0
   6.849000   73.0
   6.896500   73.0
   6.944000   73.0
   6.991500   73.0
   7.039000   73.0
   7.086000   73.0
   7.133000   73.0
   7.180500   73.0
   7.228000   73.0
   7.275000   73.0
   7.322000   73.0
   7.369500   73.0
   7.417000   73.0
   7.439000   73.0
   7.471500   73.0
   7.504000   73.0
   7.519000   73.0
   7.553000   73.0
   7.587000   73.0
   7.609000   73.0
   7.645000   73.0
   7.659000   73.0
   7.673000   73.0
   7.703000   73.0
   7.744000   73.0
   7.767000   73.0
   7.790000   73.0
   7.841000   73.0
   7.869500   73.0
   7.898000   73.0
   7.942000   73.0
   7.977500   73.0
   8.013000   73.0
   8.036000   73.0
   8.059000   73.0
   8.127000   73.0
   8.133000   73.0
   8.135000   73.0
   8.152000   73.0
   8.189500   73.0
   8.227000   73.0
   8.246500   73.0
   8.266000   73.0
   8.279000   73.0
   8.302000   73.0
   8.347500   73.0
   8.393000   73.0
   8.439000   73.0
   8.485000   73.0
   8.530500   73.0
   8.576000   73.0
   8.623000   73.0
   8.635500   73.0
   8.648000   73.0
   8.678000   73.0
   8.717000   73.0
   8.723000   73.0
   8.734500   73.0
   8.746000   73.0
   8.774000   73.0
   8.797000   73.0
   8.817000   73.0
   8.836000   73.0
   8.855000   73.0
   8.879000   73.0
   8.912000   73.0
   8.927500   73.0
   8.943000   73.0
   8.994000   73.0
   9.015000   73.0
   9.036000   73.0
   9.073000   73.0
   9.099000   73.0
   9.110000   73.0
   9.121000   73.0
   9.148000   73.0
   9.179000   73.0
   9.201000   73.0
   9.223000   73.0
   9.255000   73.0
   9.282000   73.0
   9.302500   73.0
   9.323000   73.0
   9.395000   73.0
   9.432500   73.0
   9.470000   73.0
   9.492000   73.0
   9.514000   73.0
   9.518000   73.0
   9.560000   73.0
   9.604500   73.0
   9.649000   73.0
   9.694000   73.0
   9.739000   73.0
   9.763000   73.0
   9.809500   73.0
   9.856000   73.0
   9.881500   73.0
   9.907000   73.0
   9.970000   73.0
  10.002500   73.0
  10.035000   73.0
  10.066000   73.0
  10.081500   73.0
  10.097000   73.0
  10.144000   73.0
  10.179000   73.0
  10.185000   73.0
  10.191000   73.0
  10.256000   73.0
  10.293500   73.0
  10.331000   73.0
  10.345000   73.0
  10.369500   73.0
  10.394000   73.0
  10.460000   73.0
  10.485000   73.0
  10.510000   73.0
  10.560000   73.0
  10.591500   73.0
  10.623000   73.0
  10.654000   73.0
  10.670000   73.0
  10.686000   73.0
  10.734000   73.0
  10.751000   73.0
  10.768000   73.0
  10.824000   73.0
  10.852000   73.0
  10.880000   73.0
  10.920000   73.0
  10.960000   73.0
  10.988000   73.0
  11.037000   73.0
  11.054500   73.0
  11.072000   73.0
  11.136000   73.0
  11.166000   73.0
  11.196000   73.0
  11.236000   73.0
  11.256500   73.0
  11.277000   73.0
  11.282000   73.0
  11.318000   73.0
  11.340000   73.0
  11.362000   73.0
  11.402000   73.0
  11.424500   73.0
  11.447000   73.0
  11.461000   73.0
  11.481000   73.0
  11.498000   73.0
  11.521000   73.0
  11.533000   73.0
  11.545000   73.0
  11.572000   73.0
  11.573000   73.0
  11.603000   73.0
  11.615000   73.0
  11.631000   73.0
  11.647000   73.0
  11.669000   73.0
  11.691000   73.0
  11.732000   73.0
  11.741500   73.0
  11.751000   73.0
  11.775000   73.0
  11.804500   73.0
  11.834000   73.0
  11.891000   73.0
  11.919500   73.0
  11.948000   73.0
  12.005000   73.0
  12.031000   73.0
  12.057000   73.0
  12.098000   73.0
  12.123500   73.0
  12.149000   73.0
  12.184500   73.0
  12.220000   73.0
  12.283000   73.0
  12.314500   73.0
  12.346000   73.0
  12.396000   73.0
  12.446000   73.0
  12.483500   73.0
  12.521000   73.0
  12.596000   73.0
  12.640500   73.0
  12.685000   73.0
  12.730000   73.0
  12.775000   73.0
  12.817500   73.0
  12.860000   73.0
  12.903000   73.0
  12.946000   73.0
  12.988500   73.0
  13.031000   73.0
  13.071000   73.0
  13.111000   73.0
  13.190000   73.0
  13.229500   73.0
  13.269000   73.0
  13.298000   73.0
  13.327000   73.0
  13.385000   73.0
  13.416000   73.0
  13.447000   73.0
  13.478000   73.0
  13.509000   73.0
  13.559000   73.0
  13.584500   73.0
  13.610000   73.0
  13.644500   73.0
  13.679000   73.0
  13.748000   73.0
  13.791000   73.0
  13.834000   73.0
  13.878000   73.0
  13.922000   73.0
  13.966000   73.0
  14.010000   73.0
  14.053500   73.0
  14.097000   73.0
  14.156000   73.0
  14.201000   73.0
  14.246000   73.0
  14.258500   73.0
  14.271000   73.0
  14.323000   73.0
  14.331000   73.0
  14.349000   73.0
  14.357000   73.0
  14.393500   73.0
  14.430000   73.0
  14.466500   73.0
  14.503000   73.0
  14.539000   73.0
  14.575000   73.0
  14.633000   73.0
  14.661500   73.0
  14.690000   73.0
  14.740000   73.0
  14.765500   73.0
  14.791000   73.0
  14.825000   73.0
  14.859000   73.0
  14.923000   73.0
  14.941500   73.0
  14.960000   73.0
  15.025000   73.0
  15.052000   73.0
  15.079000   73.0
  15.134000   73.0
  15.161500   73.0
  15.189000   73.0
  15.224000   73.0
  15.239000   73.0
  15.254000   73.0
  15.304000   73.0
  15.354000   73.0
  15.403500   73.0
  15.453000   73.0
  15.503000   73.0
  15.553000   73.0
  15.598000   73.0
  15.643000   73.0
  15.686000   73.0
  15.720000   73.0
  15.754000   73.0
  15.787500   73.0
  15.821000   73.0
  15.855000   73.0
  15.886000   73.0
  15.910000   73.0
  15.934000   73.0
  15.999000   73.0
  16.023500   73.0
  16.048000   73.0
  16.073000   73.0
  16.096000   73.0
  16.133000   73.0
  16.170000   73.0
  16.219000   73.0
  16.268000   73.0
  16.310500   73.0
  16.353000   73.0
  16.374500   73.0
  16.396000   73.0
  16.467000   73.0
  16.494500   73.0
  16.522000   73.0
  16.576000   73.0
  16.616000   73.0
  16.656000   73.0
  16.696000   73.0
  16.736000   73.0
  16.762500   73.0
  16.789000   73.0
  16.844000   73.0
  16.871000   73.0
  16.898000   73.0
  16.971000   73.0
  16.997000   73.0
  17.023000   73.0
  17.051500   73.0
  17.080000   73.0
  17.134000   73.0
  17.175000   73.0
  17.224000   73.0
  17.265000   73.0
  17.306000   73.0
  17.338000   73.0
  17.371500   73.0
  17.405000   73.0
  17.438500   73.0
  17.472000   73.0
  17.538000   73.0
  17.566500   73.0
  17.595000   73.0
  17.621000   73.0
  17.650000   73.0
  17.662000   73.0
  17.674000   73.0
  17.748000   73.0
  17.781000   73.0
  17.814000   73.0
  17.862500   73.0
  17.911000   73.0
  17.940000   73.0
  17.969000   73.0
  18.033000   73.0
  18.065000   73.0
  18.097000   73.0
  18.143000   73.0
  18.189000   73.0
  18.235000   73.0
  18.281000   73.0
  18.316000   73.0
  18.342500   73.0
  18.369000   73.0
  18.434000   73.0
  18.467000   73.0
  18.500000   73.0
  18.522000   73.0
  18.544000   73.0
  18.594000   73.0
  18.629000   73.0
  18.664000   73.0
  18.712000   73.0
  18.726000   73.0
  18.759500   73.0
  18.793000   73.0
  18.812000   73.0
  18.831000   73.0
  18.884000   73.0
  18.913000   73.0
  18.939000   73.0
  18.965000   73.0
  18.994000   73.0
  19.023000   73.0
  19.114000   73.0
  19.160000   73.0
  19.206000   73.0
  19.251500   73.0
  19.297000   73.0
  19.320000   73.0
  19.343000   73.0
  19.372000   73.0
  19.405500   73.0
  19.439000   73.0
  19.452000   73.0
  19.505000   73.0
  19.537000   73.0
  19.569000   73.0
  19.593000   73.0
  19.617000   73.0
  19.700000   73.0
  19.770000   73.0
  19.800000   73.0
  19.830000   73.0
  19.851000   73.0
  19.893000   73.0
  19.923000   73.0
  19.953000   73.0
  19.987500   73.0
  20.022000   73.0
  20.078000   73.0
  20.103000   73.0
  20.128000   73.0
  20.178000   73.0
  20.217500   73.0
  20.257000   73.0
  20.281000   73.0
  20.305000   73.0
  20.313000   73.0
  20.362000   73.0
  20.391500   73.0
  20.421000   73.0
  20.456000   73.0
  20.491000   73.0
  20.540000   73.0
  20.589000   73.0
  20.658000   73.0
  20.692500   73.0
  20.727000   73.0
  20.761500   73.0
  20.796000   73.0
  20.859000   73.0
  20.890500   73.0
  20.922000   73.0
  20.952500   73.0
  20.983000   73.0
  21.043000   73.0
  21.070000   73.0
  21.097000   73.0
  21.150000   73.0
  21.197500   73.0
  21.245000   73.0
  21.293000   73.0
  21.341000   73.0
  21.388500   73.0
  21.436000   73.0
  21.457000   73.0
  21.478000   73.0
  21.513000   73.0
  21.543500   73.0
  21.574000   73.0
  21.634000   73.0
  21.652000   73.0
  21.670000   73.0
  21.707000   73.0
  21.731000   73.0
  21.743000   73.0
  21.755000   73.0
  21.780000   73.0
  21.803000   73.0
  21.828000   73.0
  21.840000   73.0
  21.852000   73.0
  21.876000   73.0
  21.899000   73.0
  21.912000   73.0
  21.930500   73.0
  21.949000   73.0
  21.985000   73.0
  22.021000   73.0
  22.045000   73.0
  22.069000   73.0
  22.103000   73.0
  22.117000   73.0
  22.129500   73.0
  22.142000   73.0
  22.165000   73.0
  22.177000   73.0
  22.201000   73.0
  22.225000   73.0
  22.237000   73.0
  22.249000   73.0
  22.274000   73.0
  22.297000   73.0
  22.315500   73.0
  22.334000   73.0
  22.382000   73.0
  22.411500   73.0
  22.441000   73.0
  22.488000   73.0
  22.506500   73.0
  22.525000   73.0
  22.561000   73.0
  22.577000   73.0
  22.586000   73.0
  22.600500   73.0
  22.615000   73.0
  22.623000   73.0
  22.671000   73.0
  22.695000   73.0
  22.712500   73.0
  22.730000   73.0
  22.743000   73.0
  22.780000   73.0
  22.805000   73.0
  22.810000   73.0
  22.815000   73.0
  22.889000   73.0
  22.913000   73.0
  22.937000   73.0
  22.962000   73.0
  22.991500   73.0
  23.021000   73.0
  23.079000   73.0
  23.096000   73.0
  23.113000   73.0
  23.148000   73.0
  23.185000   73.0
  23.209000   73.0
  23.233000   73.0
  23.263500   73.0
  23.294000   73.0
  23.316000   73.0
  23.366000   73.0
  23.391000   73.0
  23.416000   73.0
  23.458000   73.0
  23.500000   73.0
  23.510000   73.0
  23.554000   73.0
  23.598000   73.0
  23.631000   73.0
  23.641000   73.0
  23.657000   73.0
  23.672000   73.0
  23.682500   73.0
  23.693000   73.0
  23.771000   73.0
  23.809500   73.0
  23.848000   73.0
  23.887000   73.0
  23.926000   73.0
  23.963000   73.0
  24.000000   73.0
  24.036500   73.0
  24.073000   73.0
  24.145000   73.0
  24.172500   73.0
  24.200000   73.0
  24.247000   73.0
  24.294000   73.0
  24.341000   73.0
  24.388000   73.0
  24.435000   73.0
  24.482000   73.0
  24.534000   73.0
  24.559500   73.0
  24.585000   73.0
  24.621500   73.0
  24.658000   73.0
  24.731000   73.0
  24.767500   73.0
  24.804000   73.0
  24.837000   73.0
  24.846000   73.0
  24.855000   73.0
  24.897000   73.0
  24.902000   73.0
  24.944000   73.0
  24.987000   73.0
  25.030000   73.0
  25.077000   73.0
  25.124000   73.0
  25.161000   73.0
  25.198000   73.0
  25.233500   73.0
  25.269000   73.0
  25.317500   73.0
  25.366000   73.0
  25.408000   73.0
  25.450000   73.0
  25.498000   73.0
  25.546000   73.0
  25.594000   73.0
  25.624500   73.0
  25.655000   73.0
  25.701000   73.0
  25.717000   73.0
  25.733000   73.0
  25.778000   73.0
  25.805000   73.0
  25.812000   73.0
  25.847000   73.0
  25.882000   73.0
  25.907000   73.0
  25.932000   73.0
  26.010000   73.0
  26.031000   73.0
  26.052000   73.0
  26.081000   73.0
  26.103000   73.0
  26.125000   73.0
  26.172000   73.0
  26.219000   73.0
  26.220000   73.0
  26.268500   73.0
  26.317000   73.0
  26.361000   73.0
  26.405000   73.0
  26.469000   73.0
  26.501500   73.0
  26.534000   73.0
  26.566000   73.0
  26.598000   73.0
  26.667000   73.0
  26.687000   73.0
  26.707000   73.0
  26.745000   73.0
  26.783000   73.0
  26.869000   73.0
  26.912000   73.0
  26.955000   73.0
  26.998000   73.0
  27.041000   73.0
  27.084000   73.0
  27.127000   73.0
  27.170000   73.0
  27.213000   73.0
  27.256000   73.0
  27.299000   73.0
  27.336000   73.0
  27.373000   73.0
  27.446000   73.0
  27.483000   73.0
  27.520000   73.0
  27.569000   73.0
  27.618000   73.0
  27.667000   73.0
  27.716000   73.0
  27.738500   73.0
  27.761000   73.0
  27.806000   73.0
  27.828500   73.0
  27.851000   73.0
  27.939000   73.0
  27.982500   73.0
  28.026000   73.0
  28.043500   73.0
  28.061000   73.0
  28.118000   73.0
  28.144000   73.0
  28.170000   73.0
  28.222000   73.0
  28.233000   73.0
  28.244000   73.0
  28.271000   73.0
  28.280000   73.0
  28.298000   73.0
  28.327000   73.0
  28.329000   73.0
  28.376000   73.0
  28.423000   73.0
  28.451500   73.0
  28.480000   73.0
  28.508000   73.0
  28.536000   73.0
  28.599000   73.0
  28.631000   73.0
  28.663000   73.0
  28.695500   73.0
  28.728000   73.0
  28.803000   73.0
  28.848000   73.0
  28.893000   73.0
  28.938000   73.0
  28.983000   73.0
  29.028500   73.0
  29.074000   73.0
  29.120000   73.0
  29.166000   73.0
  29.211500   73.0
  29.257000   73.0
  29.303000   73.0
  29.349000   73.0
  29.383000   73.0
  29.417000   73.0
  29.484000   73.0
  29.532500   73.0
  29.581000   73.0
  29.629500   73.0
  29.678000   73.0
  29.712000   73.0
  29.746000   73.0
  29.780500   73.0
  29.815000   73.0
  29.883000   73.0
  29.920000   73.0
  29.957000   73.0
  29.993500   73.0
  30.030000   73.0
  30.070500   73.0
  30.111000   73.0
  30.151500   73.0
  30.192000   73.0
  30.273000   73.0
  30.316000   73.0
  30.359000   73.0
  30.402000   73.0
  30.445000   73.0
  30.487500   73.0
  30.530000   73.0
  30.573000   73.0
  30.616000   73.0
  30.657500   73.0
  30.699000   73.0
  30.741000   73.0
  30.783000   73.0
  30.844000   73.0
  30.874500   73.0
  30.905000   73.0
  30.924000   73.0
  30.965500   73.0
  31.007000   73.0
  31.048000   73.0
  31.089000   73.0
  31.125000   73.0
  31.161000   73.0
  31.233000   73.0
  31.268500   73.0
  31.304000   73.0
  31.352000   73.0
  31.400000   73.0
  31.447500   73.0
  31.495000   73.0
  31.542500   73.0
  31.590000   73.0
  31.638000   73.0
  31.686000   73.0
  31.733500   73.0
  31.781000   73.0
  31.828500   73.0
  31.876000   73.0
  31.915000   73.0
  31.954000   73.0
  32.032000   73.0
  32.043000   73.0
  32.045000   73.0
  32.104000   73.0
  32.134000   73.0
  32.164000   73.0
  32.211000   73.0
  32.258000   73.0
  32.298500   73.0
  32.339000   73.0
  32.421000   73.0
  32.502000   73.0
  32.522000   73.0
  32.542000   73.0
  32.588000   73.0
  32.634000   73.0
  32.710000   73.0
  32.748500   73.0
  32.787000   73.0
  32.825000   73.0
  32.863000   73.0
  32.901000   73.0
  32.939000   73.0
  32.984000   73.0
  33.030000   73.0
  33.076000   73.0
  33.124000   73.0
  33.172000   73.0
  33.199500   73.0
  33.227000   73.0
  33.283000   73.0
  33.326500   73.0
  33.370000   73.0
  33.413500   73.0
  33.457000   73.0
  33.490000   73.0
  33.536000   73.0
  33.583000   73.0
  33.618000   73.0
  33.653000   73.0
  33.681000   73.0
  33.709000   73.0
  33.713000   73.0
  33.775000   73.0
  33.820000   73.0
  33.865000   73.0
  33.875000   73.0
  33.884500   73.0
  33.894000   73.0
  33.967000   73.0
  34.003000   73.0
  34.039000   73.0
  34.075500   73.0
  34.112000   73.0
  34.160500   73.0
  34.209000   73.0
  34.258000   73.0
  34.307000   73.0
  34.356000   73.0
  34.405000   73.0
  34.441500   73.0
  34.478000   73.0
  34.550000   73.0
  34.567000   73.0
  34.584000   73.0
  34.638000   73.0
  34.665500   73.0
  34.693000   73.0
  34.725000   73.0
  34.753500   73.0
  34.782000   73.0
  34.831000   73.0
  34.877000   73.0
  34.923000   73.0
  34.969000   73.0
  35.015000   73.0
  35.061500   73.0
  35.108000   73.0
  35.146500   73.0
  35.185000   73.0
  35.224000   73.0
  35.263000   73.0
  35.302000   73.0
  35.341000   73.0
  35.418000   73.0
  35.465500   73.0
  35.513000   73.0
  35.560000   73.0
  35.607000   73.0
  35.654000   73.0
  35.701000   73.0
  35.748500   73.0
  35.796000   73.0
  35.838000   73.0
  35.880000   73.0
  35.922000   73.0
  35.964000   73.0
  35.999000   73.0
  36.034000   73.0
  36.104000   73.0
  36.139000   73.0
  36.174000   73.0
  36.212500   73.0
  36.251000   73.0
  36.289500   73.0
  36.328000   73.0
  36.369500   73.0
  36.411000   73.0
  36.493000   73.0
  36.540500   73.0
  36.588000   73.0
  36.636000   73.0
  36.684000   73.0
  36.725000   73.0
  36.766000   73.0
  36.806500   73.0
  36.847000   73.0
  36.888000   73.0
  36.929000   73.0
  36.969500   73.0
  37.010000   73.0
  37.051000   73.0
  37.092000   73.0
  37.171000   73.0
  37.210500   73.0
  37.250000   73.0
  37.291500   73.0
  37.333000   73.0
  37.377000   73.0
  37.421000   73.0
  37.465000   73.0
  37.509000   73.0
  37.553000   73.0
  37.597000   73.0
  37.640500   73.0
  37.684000   73.0
  37.728000   73.0
  37.772000   73.0
  37.860000   73.0
  37.904000   73.0
  37.948000   73.0
  37.994500   73.0
  38.041000   73.0
  38.083000   73.0
  38.125000   73.0
  38.167500   73.0
  38.210000   73.0
  38.252000   73.0
  38.294000   73.0
  38.336000   73.0
  38.378000   73.0
  38.420000   73.0
  38.462000   73.0
  38.547000   73.0
  38.628000   73.0
  38.669000   73.0
  38.710000   73.0
  38.750500   73.0
  38.791000   73.0
  38.832000   73.0
  38.873000   73.0
  38.914500   73.0
  38.956000   73.0
  38.997500   73.0
  39.039000   73.0
  39.122000   73.0
  39.164000   73.0
  39.206000   73.0
  39.223000   73.0
  39.269500   73.0
  39.316000   73.0
  39.362000   73.0
  39.408000   73.0
  39.422000   73.0
  39.436000   73.0
  39.507000   73.0
  39.529500   73.0
  39.552000   73.0
  39.593000   73.0
  39.613000   73.0
  39.633000   73.0
  39.661000   73.0
  39.689500   73.0
  39.718000   73.0
  39.772000   73.0
  39.799000   73.0
  39.843500   73.0
  39.888000   73.0
  39.933000   73.0
  39.978000   73.0
  40.015500   73.0
  40.053000   73.0
  40.091500   73.0
  40.130000   73.0
  40.172000   73.0
  40.214000   73.0
  40.243000   73.0
  40.290000   73.0
  40.309000   73.0
  40.328000   73.0
  40.362000   73.0
  40.396000   73.0
  40.468000   73.0
  40.502000   73.0
  40.536000   73.0
  40.567000   73.0
  40.614500   73.0
  40.662000   73.0
  40.674000   73.0
  40.686000   73.0
  40.739000   73.0
  40.761500   73.0
  40.784000   73.0
  40.864000   73.0
  40.904500   73.0
  40.945000   73.0
  40.993000   73.0
  41.041000   73.0
  41.084000   73.0
  41.127000   73.0
  41.130000   73.0
  41.156500   73.0
  41.183000   73.0
  41.236000   73.0
  41.254500   73.0
  41.273000   73.0
  41.353000   73.0
  41.391000   73.0
  41.429000   73.0
  41.448000   73.0
  41.463500   73.0
  41.479000   73.0
  41.527000   73.0
  41.575000   73.0
  41.586000   73.0
  41.616000   73.0
  41.630000   73.0
  41.676500   73.0
  41.723000   73.0
  41.769000   73.0
  41.815000   73.0
  41.845500   73.0
  41.876000   73.0
  41.937000   73.0
  41.969500   73.0
  42.002000   73.0
  42.034500   73.0
  42.067000   73.0
  42.135000   73.0
  42.169000   73.0
  42.203000   73.0
  42.235000   73.0
  42.267000   73.0
  42.331000   73.0
  42.348000   73.0
  42.365000   73.0
  42.413500   73.0
  42.462000   73.0
  42.497500   73.0
  42.533000   73.0
  42.584000   73.0
  42.609500   73.0
  42.635000   73.0
  42.696000   73.0
  42.726500   73.0
  42.757000   73.0
  42.810000   73.0
  42.836000   73.0
  42.862000   73.0
  42.901000   73.0
  42.940000   73.0
  42.995000   73.0
  43.022000   73.0
  43.049000   73.0
  43.086500   73.0
  43.124000   73.0
  43.172000   73.0
  43.220000   73.0
  43.268000   73.0
  43.316000   73.0
  43.363500   73.0
  43.411000   73.0
  43.459000   73.0
  43.507000   73.0
  43.555000   73.0
  43.603000   73.0
  43.651000   73.0
  43.699000   73.0
  43.747000   73.0
  43.795000   73.0
  43.843000   73.0
  43.891000   73.0
  43.987000   73.0
  44.081000   73.0
  44.128500   73.0
  44.176000   73.0
  44.192500   73.0
  44.209000   73.0
  44.245500   73.0
  44.282000   73.0
  44.357000   73.0
  44.395000   73.0
  44.433000   73.0
  44.470500   73.0
  44.508000   73.0
  44.545500   73.0
  44.583000   73.0
  44.637000   73.0
  44.664000   73.0
  44.691000   73.0
  44.752000   73.0
  44.782000   73.0
  44.812000   73.0
  44.860500   73.0
  44.909000   73.0
  44.936500   73.0
  44.964000   73.0
  45.019000   73.0
  45.052500   73.0
  45.086000   73.0
  45.143000   73.0
  45.144000   73.0
  45.171500   73.0
  45.199000   73.0
  45.226000   73.0
  45.253000   73.0
  45.333000   73.0
  45.365000   73.0
  45.397000   73.0
  45.429000   73.0
  45.461000   73.0
  45.506500   73.0
  45.552000   73.0
  45.597500   73.0
  45.643000   73.0
  45.698000   73.0
  45.732000   73.0
  45.766000   73.0
  45.834000   73.0
  45.887000   73.0
  45.913500   73.0
  45.940000   73.0
  45.968000   73.0
  45.977000   73.0
  46.004000   73.0
  46.031000   73.0
  46.085000   73.0
  46.112000   73.0
  46.139000   73.0
  46.143000   73.0
  46.223000   73.0
  46.302000   73.0
  46.341500   73.0
  46.381000   73.0
  46.431000   73.0
  46.481000   73.0
  46.531000   73.0
  46.581000   73.0
  46.631000   73.0
  46.681000   73.0
  46.731000   73.0
  46.781000   73.0
  46.800500   73.0
  46.820000   73.0
  46.892000   73.0
  46.919500   73.0
  46.947000   73.0
  46.975000   73.0
  47.003000   73.0
  47.030000   73.0
  47.064000   73.0
  47.091000   73.0
  47.116500   73.0
  47.142000   73.0
  47.169500   73.0
  47.197000   73.0
  47.267000   73.0
  47.302500   73.0
  47.338000   73.0
  47.372500   73.0
  47.407000   73.0
  47.453500   73.0
  47.500000   73.0
  47.546000   73.0
  47.592000   73.0
  47.652000   73.0
  47.681500   73.0
  47.711000   73.0
  47.760500   73.0
  47.810000   73.0
  47.860000   73.0
  47.910000   73.0
  47.953000   73.0
  47.996000   73.0
  48.039500   73.0
  48.083000   73.0
  48.096000   73.0
  48.112000   73.0
  48.127000   73.0
  48.149000   73.0
  48.171000   73.0
  48.242000   73.0
  48.262000   73.0
  48.282000   73.0
  48.358000   73.0
  48.396000   73.0
  48.434000   73.0
  48.472000   73.0
  48.510000   73.0
  48.560000   73.0
  48.610000   73.0
  48.660000   73.0
  48.710000   73.0
  48.759500   73.0
  48.809000   73.0
  48.859000   73.0
  48.909000   73.0
  48.959000   73.0
  49.009000   73.0
  49.016000   73.0
  49.044000   73.0
  49.072000   73.0
  49.120000   73.0
  49.168000   73.0
  49.212000   73.0
  49.241500   73.0
  49.271000   73.0
  49.294000   73.0
  49.341000   73.0
  49.388000   73.0
  49.435000   73.0
  49.482000   73.0
  49.526000   73.0
  49.570000   73.0
  49.623000   73.0
  49.649500   73.0
  49.676000   73.0
  49.715000   73.0
  49.754000   73.0
  49.792500   73.0
  49.831000   73.0
  49.890000   73.0
  49.922500   73.0
  49.955000   73.0
  50.000000   73.0
  50.045000   73.0
  50.092000   73.0
  50.141500   73.0
  50.191000   73.0
  50.240000   73.0
  50.289000   73.0
  50.319000   73.0
  50.349000   73.0
  50.379000   73.0
  50.409000   73.0
  50.492000   73.0
  50.533500   73.0
  50.575000   73.0
  50.616500   73.0
  50.658000   73.0
  50.699000   73.0
  50.740000   73.0
  50.783500   73.0
  50.827000   73.0
  50.868500   73.0
  50.910000   73.0
  50.970000   73.0
  51.001500   73.0
  51.033000   73.0
  51.064500   73.0
  51.096000   73.0
  51.160000   73.0
  51.192000   73.0
  51.224000   73.0
  51.258500   73.0
  51.293000   73.0
  51.362000   73.0
  51.405000   73.0
  51.448000   73.0
  51.491500   73.0
  51.535000   73.0
  51.578500   73.0
  51.622000   73.0
  51.665500   73.0
  51.709000   73.0
  51.744500   73.0
  51.780000   73.0
  51.846000   73.0
  51.876500   73.0
  51.907000   73.0
  51.937000   73.0
  51.967000   73.0
  52.016000   73.0
  52.065000   73.0
  52.113500   73.0
  52.162000   73.0
  52.211000   73.0
  52.260000   73.0
  52.308500   73.0
  52.357000   73.0
  52.406000   73.0
  52.455000   73.0
  52.534000   73.0
  52.573500   73.0
  52.613000   73.0
  52.652500   73.0
  52.692000   73.0
  52.717000   73.0
  52.737000   73.0
  52.757000   73.0
  52.788000   73.0
  52.806000   73.0
  52.826500   73.0
  52.847000   73.0
  52.883000   73.0
  52.920000   73.0
  52.957000   73.0
  53.013000   73.0
  53.044500   73.0
  53.076000   73.0
  53.106500   73.0
  53.137000   73.0
  53.183000   73.0
  53.210500   73.0
  53.238000   73.0
  53.285000   73.0
  53.323000   73.0
  53.354500   73.0
  53.386000   73.0
  53.422000   73.0
  53.458000   73.0
  53.492000   73.0
  53.517500   73.0
  53.543000   73.0
  53.577000   73.0
  53.596000   73.0
  53.615000   73.0
  53.649000   73.0
  53.675000   73.0
  53.708500   73.0
  53.742000   73.0
  53.760000   73.0
  53.803000   73.0
  53.826000   73.0
  53.849000   73.0
  53.902000   73.0
  53.903000   73.0
  53.904000   73.0
  53.968000   73.0
  53.999500   73.0
  54.031000   73.0
  54.081000   73.0
  54.089500   73.0
  54.098000   73.0
  54.152000   73.0
  54.163000   73.0
  54.208500   73.0
  54.254000   73.0
  54.299500   73.0
  54.345000   73.0
  54.390500   73.0
  54.436000   73.0
  54.481500   73.0
  54.527000   73.0
  54.574000   73.0
  54.621000   73.0
  54.668000   73.0
  54.715000   73.0
  54.762000   73.0
  54.809000   73.0
  54.856000   73.0
  54.903000   73.0
  54.950000   73.0
  54.997000   73.0
  55.050000   73.0
  55.076500   73.0
  55.103000   73.0
  55.143000   73.0
  55.183000   73.0
  55.225500   73.0
  55.268000   73.0
  55.271000   73.0
  55.361000   73.0
  55.445000   73.0
  55.487000   73.0
  55.529000   73.0
  55.571000   73.0
  55.613000   73.0
  55.654500   73.0
  55.696000   73.0
  55.745000   73.0
  55.794000   73.0
  55.843000   73.0
  55.892000   73.0
  55.940500   73.0
  55.989000   73.0
  56.038000   73.0
  56.087000   73.0
  56.126500   73.0
  56.166000   73.0
  56.206000   73.0
  56.246000   73.0