Title = "Velocity file generated by S5.HPC"
Variables = "Distance (km)", "TargetVel (km/h)"
Zone T = "tvel", I = 2, J = 1, K = 1, F = POINT
     0   69.0
  3030   69.0